# vtk DataFile Version 3.0
vtk output
ASCII
DATASET POLYDATA
POINTS 505 float
24.8216 42.6592 -10.5085 23.3567 42.6592 -12.5085 22.3802 44.1241 -10.7585 
24.3333 39.2413 -12.2585 21.4036 38.2647 -11.7585 19.4505 42.6592 -11.5085 
19.4505 43.6358 -11.5085 17.0091 33.3819 -12.7585 17.4974 31.917 -12.5085 
19.2063 33.3819 -11.5085 24.3333 37.2881 -11.7585 21.4036 37.2881 -11.7585 
19.4505 36.3116 -10.7585 19.9388 38.2647 -11.2585 24.3333 43.6358 -9.50848 
17.9856 44.1241 -10.7585 17.2532 42.1709 -12.0085 19.2063 31.4288 -11.5085 
25.3099 35.335 -10.7585 21.4036 33.3819 -12.7585 16.2766 35.335 -12.0085 
18.4739 37.2881 -12.2585 15.3001 37.2881 -11.5085 26.2864 36.3116 -10.7585 
27.9954 40.2178 -12.0085 18.2298 38.2647 -12.0085 19.2063 26.5459 -12.0085 
17.4974 26.0577 -12.0085 19.2063 29.4756 -13.0085 17.9856 29.9639 -12.0085 
21.8919 32.4053 -13.2585 26.5306 35.335 -10.5085 15.0559 38.753 -12.0085 
27.7513 41.6827 -12.0085 14.5677 40.7061 -12.0085 17.4974 24.1045 -11.5085 
23.845 30.4522 -12.7585 21.8919 30.4522 -12.7585 23.845 30.9405 -13.0085 
27.5071 32.4053 -12.0085 13.5911 38.753 -11.0085 12.8587 37.2881 -10.5085 
27.5071 30.4522 -12.0085 10.4173 39.2413 -9.00848 10.6614 37.7764 -8.00848 
13.5911 41.6827 -11.0085 15.5442 44.6124 -12.5085 27.263 26.0577 -11.5085 
24.3333 26.5459 -12.2585 28.972 34.3584 -9.00848 30.1927 35.8233 -10.0085 
29.7044 38.753 -10.5085 30.4368 26.5459 -10.5085 30.4368 28.4991 -9.50848 
21.4036 27.5225 -11.7585 30.1927 31.4288 -9.25848 15.5442 30.9405 -11.5085 
31.9016 27.5225 -10.5085 31.1692 28.4991 -9.25848 13.8352 34.3584 -11.5085 
9.68485 39.7295 -8.50848 34.5872 28.0108 -10.0085 33.8548 29.4756 -10.0085 
15.7884 29.4756 -12.0085 34.5872 30.9405 -11.0085 31.1692 32.4053 -10.7585 
32.1458 34.3584 -10.7585 32.1458 37.7764 -11.5085 32.1458 28.0108 -3.00848 
28.7278 27.5225 -3.75848 26.2864 27.5225 -3.75848 25.7981 27.0342 -5.50848 
21.8919 27.0342 -6.00848 20.427 27.0342 -6.00848 34.5872 27.0342 -5.00848 
34.8313 29.4756 -5.50848 24.8216 28.4991 -3.75848 22.8684 29.4756 -3.75848 
17.7415 27.5225 -6.00848 17.7415 29.4756 -4.50848 16.2766 30.4522 -6.00848 
34.0989 32.8936 -5.50848 15.3001 32.4053 -5.50848 32.1458 32.4053 -5.25848 
28.2395 32.4053 -3.25848 24.3333 31.917 -3.00848 32.3899 35.335 -6.00848 
28.2395 35.335 -3.75848 24.3333 35.335 -3.25848 15.5442 33.8702 -4.00848 
13.5911 34.8467 -5.50848 31.1692 37.7764 -6.00848 12.6145 36.7999 -4.00848 
10.9056 36.3116 -5.50848 30.1927 37.7764 -5.50848 29.7044 38.753 -6.50848 
10.1731 39.7295 -5.50848 9.44071 39.2413 -6.00848 27.9954 39.2413 -5.00848 
27.263 40.7061 -6.50848 24.8216 40.7061 -6.50848 21.8919 40.7061 -7.00848 
20.427 41.6827 -7.00848 13.5911 40.7061 -6.50848 18.2298 41.1944 -6.50848 
16.5208 41.6827 -7.00848 16.0325 43.1475 -7.25848 33.3665 34.3584 -6.00848 
22.3802 39.7295 -6.00848 20.427 39.2413 -5.75848 14.8118 38.2647 -5.00848 
12.8587 39.2413 -4.50848 32.8782 29.4756 -3.00848 30.1927 34.3584 -3.75848 
17.9856 39.2413 -5.75848 17.4974 35.8233 -4.00848 15.0559 37.7764 -3.50848 
24.3333 39.7295 -5.50848 22.8684 36.7999 -4.50848 20.1829 37.2881 -5.00848 
11.638 40.7061 -7.00848 18.4739 33.8702 -3.50848 20.427 33.8702 -3.50848 
17.9856 32.8936 -3.00848 20.9153 32.4053 -2.75848 25.3099 36.7999 -3.50848 
20.427 29.4756 -3.25848 21.8919 33.3819 -3.25848 27.7513 36.7999 -3.50848 
22.3802 32.4053 -3.75848 30.1927 31.917 -3.00848 27.0188 29.4756 -2.50848 
29.2161 29.4756 -2.25848 17.4974 22.6397 -10.2585 19.9388 24.1045 -12.5085 
30.1927 23.6163 -9.75848 26.5306 25.5694 -12.0085 24.8216 25.0811 -13.0085 
32.3899 23.6163 -10.5085 32.1458 22.1514 -10.0085 30.1927 22.1514 -11.5085 
28.2395 22.1514 -12.5085 22.3802 23.6163 -13.2585 32.6341 21.6631 -2.75848 
28.4837 21.6631 -1.50848 26.0423 21.6631 -2.00848 17.7415 21.6631 -5.00848 
34.8313 23.6163 -5.50848 33.8548 21.6631 -5.00848 32.8782 23.6163 -2.50848 
26.7747 24.5928 -2.75848 24.0891 23.6163 -4.50848 24.3333 22.6397 -4.75848 
19.4505 25.0811 -6.00848 17.9856 24.1045 -6.50848 22.3802 25.0811 -6.00848 
32.8782 18.7334 -5.00848 30.1927 18.7334 -1.25848 26.2864 20.6866 -6.25848 
32.6341 18.2452 -5.50848 30.1927 16.292 -5.50848 28.2395 17.7569 -5.75848 
24.3333 20.6866 -3.75848 21.8919 23.128 -5.00848 19.4505 23.128 -4.50848 
30.1927 13.8506 -4.75848 27.263 14.8272 -5.25848 23.845 18.2452 -5.00848 
33.6106 20.1983 -4.50848 22.3802 19.71 -3.75848 31.1692 14.8272 -4.75848 
24.3333 14.8272 -5.75848 22.3802 16.7803 -4.25848 19.4505 18.7334 -3.75848 
31.1692 12.8741 -6.25848 28.7278 11.4092 -5.00848 26.2864 11.8975 -5.25848 
33.1224 18.2452 -4.00848 16.7649 20.6866 -4.00848 23.845 12.8741 -5.25848 
22.3802 15.3155 -3.50848 20.9153 16.292 -3.50848 17.4974 16.7803 -2.75848 
23.3567 11.8975 -4.75848 20.9153 14.3389 -3.00848 25.3099 9.94438 -4.75848 
26.2864 9.94438 -4.75848 29.2161 10.9209 -5.25848 23.3567 10.9209 -4.75848 
17.4974 15.8038 -2.75848 14.5677 16.7803 -3.75848 15.0559 19.2217 -5.00848 
20.9153 12.8741 -2.25848 29.2161 24.1045 -1.50848 23.845 8.47954 -4.50848 
18.9622 13.3624 -1.50848 15.5442 15.8038 -1.75848 15.0559 13.3624 -4.00848 
13.5911 15.8038 -4.75848 13.1028 18.2452 -6.00848 23.3567 8.47954 -4.00848 
20.9153 10.9209 -4.25848 12.1263 13.3624 -3.50848 20.9153 8.47954 -5.00848 
11.638 12.8741 -4.25848 23.3567 6.52641 2.99152 19.4505 6.52641 3.99152 
25.3099 7.50298 1.99152 26.2864 8.47954 0.991524 27.263 10.4327 1.99152 
19.4505 8.96782 7.24152 28.4837 10.9209 0.491524 17.9856 9.94438 -5.25848 
17.4974 10.9209 4.24152 15.7884 10.9209 -5.00848 14.5677 9.4561 4.99152 
12.1263 8.96782 -3.75848 13.5911 9.4561 3.99152 28.972 11.8975 0.491524 
17.9856 11.4092 2.49152 12.1263 11.4092 1.99152 10.6614 11.4092 1.49152 
21.8919 12.3858 2.99152 19.4505 11.8975 2.24152 15.0559 11.4092 1.99152 
28.972 13.8506 0.491524 22.8684 14.3389 1.49152 27.0188 14.8272 1.49152 
24.3333 14.8272 1.74152 26.7747 16.292 0.491524 24.3333 16.292 0.491524 
10.6614 9.4561 3.49152 7.48759 9.94438 4.99152 27.263 11.8975 2.24152 
7.73173 11.4092 4.99152 17.0091 7.50298 5.49152 25.3099 9.4561 3.49152 
24.8216 12.8741 3.24152 15.0559 7.50298 6.99152 22.3802 9.94438 5.74152 
14.3235 7.99126 6.99152 33.6106 42.6592 -20.5085 30.6809 42.6592 -21.5085 
36.5403 41.6827 -19.5085 30.1927 27.5225 -16.2585 27.263 27.5225 -15.7585 
17.4974 12.3858 -9.00848 19.9388 12.8741 -8.75848 19.2063 14.8272 -10.5085 
17.9856 15.3155 -10.5085 14.3235 31.4288 -12.0085 17.9856 17.2686 -10.5085 
15.7884 17.7569 -9.50848 15.5442 12.3858 -9.00848 15.0559 14.3389 -9.00848 
13.5911 18.2452 -9.00848 13.1028 14.8272 -7.75848 9.92899 15.8038 -5.00848 
13.1028 8.47954 -6.00848 11.1497 9.4561 -3.50848 8.22001 9.4561 -3.00848 
8.22001 12.8741 -4.25848 19.9388 20.1983 -12.0085 19.4505 17.7569 -11.2585 
18.4739 20.1983 -11.0085 17.9856 7.01469 -10.2585 15.5442 7.50298 -9.50848 
17.4974 8.96782 -10.2585 15.5442 10.9209 -9.75848 15.7884 19.71 -8.50848 
13.1028 7.50298 -7.50848 13.1028 10.9209 -7.75848 13.1028 11.4092 -7.50848 
11.8821 14.8272 -7.50848 11.638 17.2686 -7.50848 11.8821 9.94438 -7.50848 
11.8821 12.8741 -7.50848 10.6614 17.2686 -6.00848 10.6614 8.47954 -4.50848 
24.3333 43.6358 -18.0085 24.0891 42.1709 -17.5085 22.8684 43.6358 -17.5085 
22.8684 42.1709 -17.7585 19.9388 43.6358 -16.5085 22.8684 38.753 -16.5085 
20.427 41.6827 -17.0085 24.8216 39.7295 -16.5085 20.6712 40.2178 -16.5085 
26.7747 34.8467 -16.5085 26.7747 36.7999 -16.0085 24.8216 36.7999 -16.5085 
22.3802 37.2881 -16.2585 26.5306 39.2413 -17.0085 20.427 36.3116 -15.2585 
27.263 32.4053 -15.7585 24.8216 34.3584 -15.7585 25.3099 32.4053 -16.2585 
22.3802 35.335 -15.7585 17.7415 42.1709 -15.5085 17.9856 43.6358 -15.5085 
26.7747 23.6163 -15.7585 25.3099 24.5928 -15.7585 24.8216 26.5459 -15.7585 
27.7513 29.4756 -15.7585 25.3099 29.4756 -16.2585 20.427 33.8702 -15.5085 
17.9856 40.2178 -15.7585 23.845 23.128 -13.0085 21.4036 23.128 -13.0085 
20.427 22.1514 -12.0085 13.1028 45.5889 -11.0085 9.92899 45.1006 -8.50848 
10.6614 40.7061 -10.0085 9.44071 42.1709 -8.50848 9.44071 45.1006 -9.00848 
9.68485 41.1944 -7.25848 26.2864 41.6827 -19.0085 27.263 43.6358 -17.5085 
28.7278 40.7061 -19.0085 29.4602 39.2413 -17.0085 29.2161 43.6358 -17.0085 
29.9485 31.4288 -16.0085 29.7044 33.8702 -16.0085 30.1927 37.2881 -16.2585 
27.263 22.6397 -15.7585 29.4602 29.4756 -16.0085 31.1692 35.335 -16.2585 
30.9251 36.3116 -16.5085 29.2161 24.1045 -16.5085 29.9485 42.1709 -11.5085 
30.1927 45.1006 -11.7585 27.7513 44.6124 -13.0085 24.3333 20.1983 -12.0085 
21.8919 19.71 -12.2585 27.263 20.1983 -11.0085 31.6575 38.753 -11.0085 
32.1458 45.5889 -11.5085 29.7044 20.1983 -10.0085 31.9016 41.1944 -10.5085 
31.6575 20.1983 -9.50848 31.1692 38.753 -20.0085 39.47 42.6592 -18.0085 
39.47 38.2647 -18.7585 35.3196 38.2647 -18.0085 34.0989 39.2413 -18.2585 
36.5403 36.7999 -18.5085 33.6106 36.7999 -17.0085 41.179 39.2413 -18.5085 
40.6907 41.1944 -18.5085 38.4934 36.7999 -18.0085 38.9817 43.6358 -19.0085 
35.5638 43.6358 -18.5085 33.8548 43.1475 -18.5085 32.1458 44.1241 -16.2585 
38.4934 34.3584 -16.7585 36.052 34.8467 -17.0085 40.4466 36.7999 -17.5085 
36.5403 18.7334 -18.2585 37.0286 18.2452 -18.0085 38.2493 19.71 -17.5085 
36.052 22.1514 -17.0085 33.6106 34.8467 -16.0085 38.4934 18.2452 -17.5085 
34.0989 18.7334 -17.7585 33.6106 18.2452 -17.5085 38.9817 21.1749 -16.5085 
34.0989 23.128 -18.0085 32.1458 22.6397 -17.2585 34.5872 24.1045 -16.5085 
32.1458 24.1045 -17.0085 31.6575 18.7334 -16.7585 31.6575 18.2452 -17.0085 
36.052 24.5928 -15.2585 41.179 34.3584 -16.5085 40.9349 31.917 -16.0085 
29.2161 19.71 -16.2585 29.2161 23.128 -16.5085 34.3431 29.4756 -15.5085 
33.6106 27.5225 -15.2585 31.9016 29.4756 -16.0085 37.0286 31.917 -15.5085 
33.6106 32.4053 -15.7585 27.263 19.2217 -15.5085 42.888 26.5459 -15.7585 
41.4231 27.5225 -15.2585 31.9016 27.5225 -17.0085 42.888 29.9639 -15.5085 
41.4231 29.4756 -15.2585 42.888 32.4053 -15.7585 32.6341 31.4288 -15.7585 
42.3997 33.3819 -15.7585 40.6907 19.71 -17.0085 41.4231 20.1983 -12.5085 
39.47 20.1983 -11.0085 37.0286 19.71 -13.7585 35.0755 20.1983 -11.0085 
[...]
POINT_DATA 505
SCALARS Label float
LOOKUP_TABLE default
1 1 1 1 1 1 1 10 7 
1 1 1 1 1 1 1 10 10 
1 10 7 10 7 1 11 10 7 
7 7 7 10 1 10 11 10 7 
10 10 10 11 7 7 11 10 1 
10 10 11 10 1 11 11 11 12 
10 12 7 11 12 7 10 12 12 
17 12 12 11 11 1 1 1 1 
7 7 1 1 1 1 1 1 1 
1 1 1 1 1 1 1 1 1 
1 1 1 1 1 1 1 1 1 
1 1 1 1 1 1 1 1 1 
1 1 1 1 1 1 1 1 1 
1 1 1 10 1 1 1 1 1 
1 1 1 1 1 1 1 11 10 
11 11 10 11 12 11 11 10 2 
2 2 2 2 2 2 2 7 2 
2 2 2 2 2 2 2 2 2 
2 2 2 2 2 2 2 2 2 
13 2 2 13 13 13 2 2 13 
2 2 2 13 2 13 13 13 13 
2 13 13 2 2 13 2 2 13 
13 13 13 13 7 13 13 2 2 
2 2 2 2 2 13 2 13 2 
13 2 2 2 2 2 2 2 2 
2 2 2 2 2 2 2 2 2 
2 2 2 2 2 2 2 12 12 
12 14 7 7 13 13 7 17 9 
7 9 7 9 9 13 13 13 13 
13 11 9 11 14 9 13 13 13 
9 9 9 9 9 9 9 13 13 
11 10 10 10 10 10 10 10 10 
17 11 17 10 11 10 11 10 17 
10 17 17 14 17 17 11 17 17 
17 10 10 10 10 10 10 10 10 
10 12 11 12 12 12 17 11 12 
14 17 14 12 14 11 11 11 11 
11 11 11 12 11 11 12 12 12 
12 12 12 12 12 12 12 12 12 
12 12 12 12 12 12 12 12 12 
12 12 16 12 17 12 17 12 12 
12 12 17 12 12 12 12 14 12 
12 14 12 12 17 12 12 17 12 
12 12 14 12 16 16 12 12 12 
16 12 12 12 12 12 12 12 12 
12 12 12 12 12 12 12 12 12 
12 12 16 12 12 12 12 12 12 
12 12 12 12 12 12 12 12 12 
12 12 12 12 12 12 12 12 12 
12 12 12 12 13 13 13 13 13 
13 13 14 13 13 13 13 14 13 
14 14 13 14 13 17 13 13 13 
13 13 13 13 13 13 13 13 13 
13 13 14 14 14 14 16 16 16 
17 17 17 17 17 17 17 17 17 
17 17 17 17 17 17 17 17 17 
17 
